19
	Energy:    -124.2893235
C          1.34011       -0.20446        0.00685
C          0.62476       -1.40064        0.00056
C         -0.77042       -1.37880       -0.00363
C         -1.45077       -0.16076       -0.00292
C         -0.73543        1.03526        0.00204
C          0.65853        1.01106        0.00805
H          2.42623       -0.21708        0.01031
H          1.15412       -2.34927       -0.00137
H         -1.32793       -2.31122       -0.00849
H         -2.53706       -0.14219       -0.00755
H         -1.25830        1.98919       -0.00133
H          1.21090        1.94449        0.01283
O          0.20721        4.54516       -0.63786
S          1.42923        5.21267       -0.27416
O          2.32608        5.79857       -1.24097
O          2.32288        4.21697        0.61221
O          1.08443        6.38474        0.76549
H          3.26204        4.37491        0.39059
H          1.37651        7.23030        0.36934
